<?xml version="1.0" encoding="UTF-8"?>

<!-- generated on 12/04/20 11:27:07 by Eclipse SUMO GUI Version 1.7.0
<configuration xmlns:xsi="http://www.w3.org/2001/XMLSchema-instance" xsi:noNamespaceSchemaLocation="http://sumo.dlr.de/xsd/sumoConfiguration.xsd">

    <input>
        <net-file value="C:\Users\Mr.Son\Desktop\sumo\test\test.net.xml"/>
        <route-files value="C:\Users\Mr.Son\Desktop\sumo\test\test.rou.xml"/>
    </input>

    <output>
        <tripinfo-output value="tripinfo.xml"/>
    </output>

    <traci_server>
        <remote-port value="55336"/>
    </traci_server>

</configuration>
-->

<tripinfos xmlns:xsi="http://www.w3.org/2001/XMLSchema-instance" xsi:noNamespaceSchemaLocation="http://sumo.dlr.de/xsd/tripinfo_file.xsd">
    <tripinfo id="flow_3.0" depart="3.00" departLane="11_0" departPos="5.10" departSpeed="0.00" departDelay="0.00" arrival="24.00" arrivalLane="32_0" arrivalPos="117.73" arrivalSpeed="12.94" duration="21.00" routeLength="240.03" waitingTime="0.00" waitingCount="0" stopTime="0.00" timeLoss="3.86" rerouteNo="0" devices="tripinfo_flow_3.0" vType="DEFAULT_VEHTYPE" speedFactor="1.01" vaporized=""/>
    <tripinfo id="flow_55.0" depart="5.00" departLane="31_0" departPos="5.10" departSpeed="0.00" departDelay="0.00" arrival="25.00" arrivalLane="42_3" arrivalPos="66.36" arrivalSpeed="13.95" duration="20.00" routeLength="208.66" waitingTime="0.00" waitingCount="0" stopTime="0.00" timeLoss="4.23" rerouteNo="0" devices="tripinfo_flow_55.0" vType="DEFAULT_VEHTYPE" speedFactor="1.03" vaporized=""/>
    <tripinfo id="flow_1.0" depart="6.00" departLane="11_0" departPos="5.10" departSpeed="0.00" departDelay="1.00" arrival="27.00" arrivalLane="22_1" arrivalPos="94.13" arrivalSpeed="14.00" duration="21.00" routeLength="212.42" waitingTime="0.00" waitingCount="0" stopTime="0.00" timeLoss="5.80" rerouteNo="0" devices="tripinfo_flow_1.0" vType="DEFAULT_VEHTYPE" speedFactor="1.08" vaporized=""/>
    <tripinfo id="flow_21.0" depart="13.00" departLane="31_0" departPos="5.10" departSpeed="0.00" departDelay="0.00" arrival="35.00" arrivalLane="12_0" arrivalPos="93.96" arrivalSpeed="12.65" duration="22.00" routeLength="239.72" waitingTime="0.00" waitingCount="0" stopTime="0.00" timeLoss="3.45" rerouteNo="0" devices="tripinfo_flow_21.0" vType="DEFAULT_VEHTYPE" speedFactor="0.94" vaporized=""/>
    <tripinfo id="flow_3.1" depart="13.00" departLane="11_0" departPos="5.10" departSpeed="0.00" departDelay="0.00" arrival="37.00" arrivalLane="32_0" arrivalPos="117.73" arrivalSpeed="11.48" duration="24.00" routeLength="240.03" waitingTime="0.00" waitingCount="0" stopTime="0.00" timeLoss="3.21" rerouteNo="0" devices="tripinfo_flow_3.1" vType="DEFAULT_VEHTYPE" speedFactor="0.86" vaporized=""/>
    <tripinfo id="flow_17.0" depart="19.00" departLane="31_0" departPos="5.10" departSpeed="0.00" departDelay="0.00" arrival="42.00" arrivalLane="42_3" arrivalPos="66.36" arrivalSpeed="11.43" duration="23.00" routeLength="208.66" waitingTime="0.00" waitingCount="0" stopTime="0.00" timeLoss="4.85" rerouteNo="0" devices="tripinfo_flow_17.0" vType="DEFAULT_VEHTYPE" speedFactor="0.88" vaporized=""/>
    <tripinfo id="flow_18.0" depart="0.00" departLane="21_0" departPos="5.10" departSpeed="0.00" departDelay="0.00" arrival="51.00" arrivalLane="42_1" arrivalPos="66.36" arrivalSpeed="14.18" duration="51.00" routeLength="189.25" waitingTime="28.00" waitingCount="1" stopTime="0.00" timeLoss="37.24" rerouteNo="0" devices="tripinfo_flow_18.0" vType="DEFAULT_VEHTYPE" speedFactor="1.06" vaporized=""/>
    <tripinfo id="flow_59.0" depart="11.00" departLane="21_0" departPos="5.10" departSpeed="0.00" departDelay="0.00" arrival="54.00" arrivalLane="42_1" arrivalPos="66.36" arrivalSpeed="11.41" duration="43.00" routeLength="189.25" waitingTime="18.00" waitingCount="1" stopTime="0.00" timeLoss="26.01" rerouteNo="0" devices="tripinfo_flow_59.0" vType="DEFAULT_VEHTYPE" speedFactor="0.83" vaporized=""/>
    <tripinfo id="flow_61.0" depart="12.00" departLane="41_0" departPos="5.10" departSpeed="0.00" departDelay="0.00" arrival="54.00" arrivalLane="22_0" arrivalPos="94.13" arrivalSpeed="11.68" duration="42.00" routeLength="189.26" waitingTime="18.00" waitingCount="1" stopTime="0.00" timeLoss="26.30" rerouteNo="0" devices="tripinfo_flow_61.0" vType="DEFAULT_VEHTYPE" speedFactor="0.89" vaporized=""/>
    <tripinfo id="flow_22.0" depart="20.00" departLane="21_0" departPos="5.10" departSpeed="0.00" departDelay="3.00" arrival="56.00" arrivalLane="12_0" arrivalPos="93.96" arrivalSpeed="12.66" duration="36.00" routeLength="197.05" waitingTime="11.00" waitingCount="1" stopTime="0.00" timeLoss="19.84" rerouteNo="0" devices="tripinfo_flow_22.0" vType="DEFAULT_VEHTYPE" speedFactor="0.93" vaporized=""/>
    <tripinfo id="flow_59.1" depart="23.00" departLane="21_0" departPos="5.10" departSpeed="0.00" departDelay="1.00" arrival="57.00" arrivalLane="42_1" arrivalPos="66.36" arrivalSpeed="12.10" duration="34.00" routeLength="189.25" waitingTime="10.00" waitingCount="1" stopTime="0.00" timeLoss="18.80" rerouteNo="0" devices="tripinfo_flow_59.1" vType="DEFAULT_VEHTYPE" speedFactor="0.94" vaporized=""/>
    <tripinfo id="flow_8.0" depart="26.00" departLane="41_0" departPos="5.10" departSpeed="0.00" departDelay="0.00" arrival="58.00" arrivalLane="22_1" arrivalPos="94.13" arrivalSpeed="14.88" duration="32.00" routeLength="189.26" waitingTime="5.00" waitingCount="1" stopTime="0.00" timeLoss="19.43" rerouteNo="0" devices="tripinfo_flow_8.0" vType="DEFAULT_VEHTYPE" speedFactor="1.16" vaporized=""/>
    <tripinfo id="flow_22.1" depart="28.00" departLane="21_0" departPos="5.10" departSpeed="0.00" departDelay="0.00" arrival="60.00" arrivalLane="12_0" arrivalPos="93.96" arrivalSpeed="13.54" duration="32.00" routeLength="197.05" waitingTime="6.00" waitingCount="1" stopTime="0.00" timeLoss="17.20" rerouteNo="0" devices="tripinfo_flow_22.1" vType="DEFAULT_VEHTYPE" speedFactor="1.02" vaporized=""/>
    <tripinfo id="flow_58.0" depart="14.00" departLane="21_0" departPos="5.10" departSpeed="0.00" departDelay="2.00" arrival="64.00" arrivalLane="32_3" arrivalPos="117.73" arrivalSpeed="13.47" duration="50.00" routeLength="236.49" waitingTime="19.00" waitingCount="2" stopTime="0.00" timeLoss="32.85" rerouteNo="0" devices="tripinfo_flow_58.0" vType="DEFAULT_VEHTYPE" speedFactor="1.05" vaporized=""/>
    <tripinfo id="flow_36.0" depart="14.00" departLane="41_0" departPos="1.70" departSpeed="0.00" departDelay="1.00" arrival="67.00" arrivalLane="22_0" arrivalPos="94.13" arrivalSpeed="5.45" duration="53.00" routeLength="192.66" waitingTime="9.00" waitingCount="1" stopTime="0.00" timeLoss="18.00" rerouteNo="0" devices="tripinfo_flow_36.0" vType="DEFAULT_BIKETYPE" speedFactor="1.09" vaporized=""/>
    <tripinfo id="flow_34.0" depart="29.00" departLane="41_0" departPos="1.70" departSpeed="0.00" departDelay="0.00" arrival="69.00" arrivalLane="32_0" arrivalPos="117.73" arrivalSpeed="5.55" duration="40.00" routeLength="191.42" waitingTime="0.00" waitingCount="0" stopTime="0.00" timeLoss="4.86" rerouteNo="0" devices="tripinfo_flow_34.0" vType="DEFAULT_BIKETYPE" speedFactor="1.01" vaporized=""/>
    <tripinfo id="flow_0.0" depart="19.00" departLane="41_0" departPos="1.70" departSpeed="0.00" departDelay="4.00" arrival="70.00" arrivalLane="22_0" arrivalPos="94.13" arrivalSpeed="5.13" duration="51.00" routeLength="192.66" waitingTime="7.00" waitingCount="1" stopTime="0.00" timeLoss="15.43" rerouteNo="0" devices="tripinfo_flow_0.0" vType="DEFAULT_BIKETYPE" speedFactor="1.05" vaporized=""/>
    <tripinfo id="flow_50.0" depart="50.00" departLane="41_0" departPos="5.10" departSpeed="0.00" departDelay="2.00" arrival="71.00" arrivalLane="22_0" arrivalPos="94.13" arrivalSpeed="7.94" duration="21.00" routeLength="189.26" waitingTime="0.00" waitingCount="0" stopTime="0.00" timeLoss="9.20" rerouteNo="0" devices="tripinfo_flow_50.0" vType="DEFAULT_VEHTYPE" speedFactor="1.17" vaporized=""/>
    <tripinfo id="flow_57.0" depart="17.00" departLane="41_0" departPos="5.10" departSpeed="0.00" departDelay="3.00" arrival="73.00" arrivalLane="12_3" arrivalPos="93.96" arrivalSpeed="13.48" duration="56.00" routeLength="184.78" waitingTime="21.00" waitingCount="2" stopTime="0.00" timeLoss="41.76" rerouteNo="0" devices="tripinfo_flow_57.0" vType="DEFAULT_VEHTYPE" speedFactor="1.03" vaporized=""/>
    <tripinfo id="flow_51.0" depart="34.00" departLane="41_0" departPos="5.10" departSpeed="0.00" departDelay="3.00" arrival="75.00" arrivalLane="12_3" arrivalPos="93.96" arrivalSpeed="11.47" duration="41.00" routeLength="184.78" waitingTime="7.00" waitingCount="1" stopTime="0.00" timeLoss="25.24" rerouteNo="0" devices="tripinfo_flow_51.0" vType="DEFAULT_VEHTYPE" speedFactor="0.89" vaporized=""/>
    <tripinfo id="flow_41.0" depart="33.00" departLane="21_0" departPos="1.70" departSpeed="0.00" departDelay="0.00" arrival="75.00" arrivalLane="12_0" arrivalPos="93.96" arrivalSpeed="5.40" duration="42.00" routeLength="200.45" waitingTime="0.00" waitingCount="0" stopTime="0.00" timeLoss="5.02" rerouteNo="0" devices="tripinfo_flow_41.0" vType="DEFAULT_BIKETYPE" speedFactor="0.83" vaporized=""/>
    <tripinfo id="flow_50.1" depart="58.00" departLane="41_0" departPos="5.10" departSpeed="0.00" departDelay="0.00" arrival="76.00" arrivalLane="22_0" arrivalPos="94.13" arrivalSpeed="12.85" duration="18.00" routeLength="189.26" waitingTime="0.00" waitingCount="0" stopTime="0.00" timeLoss="3.55" rerouteNo="0" devices="tripinfo_flow_50.1" vType="DEFAULT_VEHTYPE" speedFactor="0.96" vaporized=""/>
    <tripinfo id="flow_23.0" depart="44.00" departLane="41_0" departPos="5.10" departSpeed="0.00" departDelay="0.00" arrival="77.00" arrivalLane="12_3" arrivalPos="93.96" arrivalSpeed="12.31" duration="33.00" routeLength="184.78" waitingTime="3.00" waitingCount="1" stopTime="0.00" timeLoss="17.60" rerouteNo="0" devices="tripinfo_flow_23.0" vType="DEFAULT_VEHTYPE" speedFactor="0.93" vaporized=""/>
    <tripinfo id="flow_35.0" depart="2.00" departLane="41_0" departPos="1.70" departSpeed="0.00" departDelay="0.00" arrival="79.00" arrivalLane="12_0" arrivalPos="93.96" arrivalSpeed="5.49" duration="77.00" routeLength="188.18" waitingTime="30.00" waitingCount="2" stopTime="0.00" timeLoss="42.20" rerouteNo="0" devices="tripinfo_flow_35.0" vType="DEFAULT_BIKETYPE" speedFactor="0.94" vaporized=""/>
    <tripinfo id="flow_52.0" depart="16.00" departLane="21_0" departPos="5.10" departSpeed="0.00" departDelay="1.00" arrival="82.00" arrivalLane="32_3" arrivalPos="117.73" arrivalSpeed="15.38" duration="66.00" routeLength="236.49" waitingTime="30.00" waitingCount="3" stopTime="0.00" timeLoss="49.67" rerouteNo="0" devices="tripinfo_flow_52.0" vType="DEFAULT_VEHTYPE" speedFactor="1.12" vaporized=""/>
    <tripinfo id="flow_10.0" depart="60.00" departLane="41_0" departPos="5.10" departSpeed="0.00" departDelay="0.00" arrival="83.00" arrivalLane="32_1" arrivalPos="117.73" arrivalSpeed="14.25" duration="23.00" routeLength="188.02" waitingTime="0.00" waitingCount="0" stopTime="0.00" timeLoss="9.35" rerouteNo="0" devices="tripinfo_flow_10.0" vType="DEFAULT_VEHTYPE" speedFactor="1.09" vaporized=""/>
    <tripinfo id="flow_34.1" depart="46.00" departLane="41_0" departPos="1.70" departSpeed="0.00" departDelay="0.00" arrival="86.00" arrivalLane="32_0" arrivalPos="117.73" arrivalSpeed="5.19" duration="40.00" routeLength="191.42" waitingTime="0.00" waitingCount="0" stopTime="0.00" timeLoss="4.91" rerouteNo="0" devices="tripinfo_flow_34.1" vType="DEFAULT_BIKETYPE" speedFactor="1.18" vaporized=""/>
    <tripinfo id="flow_12.0" depart="63.00" departLane="21_0" departPos="5.10" departSpeed="0.00" departDelay="0.00" arrival="86.00" arrivalLane="12_1" arrivalPos="93.96" arrivalSpeed="13.69" duration="23.00" routeLength="197.05" waitingTime="0.00" waitingCount="0" stopTime="0.00" timeLoss="7.99" rerouteNo="0" devices="tripinfo_flow_12.0" vType="DEFAULT_VEHTYPE" speedFactor="1.04" vaporized=""/>
    <tripinfo id="flow_26.0" depart="65.00" departLane="41_0" departPos="5.10" departSpeed="0.00" departDelay="0.00" arrival="87.00" arrivalLane="32_1" arrivalPos="117.73" arrivalSpeed="8.58" duration="22.00" routeLength="188.02" waitingTime="0.00" waitingCount="0" stopTime="0.00" timeLoss="7.83" rerouteNo="0" devices="tripinfo_flow_26.0" vType="DEFAULT_VEHTYPE" speedFactor="1.00" vaporized=""/>
    <tripinfo id="flow_52.1" depart="18.00" departLane="21_0" departPos="5.10" departSpeed="0.00" departDelay="2.00" arrival="88.00" arrivalLane="32_3" arrivalPos="117.73" arrivalSpeed="12.87" duration="70.00" routeLength="236.49" waitingTime="28.00" waitingCount="3" stopTime="0.00" timeLoss="51.67" rerouteNo="0" devices="tripinfo_flow_52.1" vType="DEFAULT_VEHTYPE" speedFactor="0.99" vaporized=""/>
    <tripinfo id="flow_5.0" depart="56.00" departLane="21_0" departPos="5.10" departSpeed="0.00" departDelay="0.00" arrival="90.00" arrivalLane="32_3" arrivalPos="117.73" arrivalSpeed="11.99" duration="34.00" routeLength="236.49" waitingTime="1.00" waitingCount="1" stopTime="0.00" timeLoss="14.58" rerouteNo="0" devices="tripinfo_flow_5.0" vType="DEFAULT_VEHTYPE" speedFactor="0.90" vaporized=""/>
    <tripinfo id="flow_41.1" depart="51.00" departLane="21_0" departPos="1.70" departSpeed="0.00" departDelay="0.00" arrival="92.00" arrivalLane="12_0" arrivalPos="93.96" arrivalSpeed="5.23" duration="41.00" routeLength="200.45" waitingTime="0.00" waitingCount="0" stopTime="0.00" timeLoss="4.30" rerouteNo="0" devices="tripinfo_flow_41.1" vType="DEFAULT_BIKETYPE" speedFactor="1.02" vaporized=""/>
    <tripinfo id="flow_60.0" depart="66.00" departLane="21_0" departPos="5.10" departSpeed="0.00" departDelay="2.00" arrival="93.00" arrivalLane="12_0" arrivalPos="93.96" arrivalSpeed="7.38" duration="27.00" routeLength="197.05" waitingTime="0.00" waitingCount="0" stopTime="0.00" timeLoss="13.16" rerouteNo="0" devices="tripinfo_flow_60.0" vType="DEFAULT_VEHTYPE" speedFactor="1.09" vaporized=""/>
    <tripinfo id="flow_13.0" depart="72.00" departLane="41_0" departPos="5.10" departSpeed="0.00" departDelay="0.00" arrival="97.00" arrivalLane="12_3" arrivalPos="93.96" arrivalSpeed="11.36" duration="25.00" routeLength="184.78" waitingTime="0.00" waitingCount="0" stopTime="0.00" timeLoss="8.02" rerouteNo="0" devices="tripinfo_flow_13.0" vType="DEFAULT_VEHTYPE" speedFactor="0.85" vaporized=""/>
    <tripinfo id="flow_6.0" depart="75.00" departLane="41_0" departPos="5.10" departSpeed="0.00" departDelay="0.00" arrival="99.00" arrivalLane="12_3" arrivalPos="93.96" arrivalSpeed="13.98" duration="24.00" routeLength="184.78" waitingTime="0.00" waitingCount="0" stopTime="0.00" timeLoss="9.47" rerouteNo="0" devices="tripinfo_flow_6.0" vType="DEFAULT_VEHTYPE" speedFactor="1.02" vaporized=""/>
    <tripinfo id="flow_53.0" depart="29.00" departLane="31_0" departPos="5.10" departSpeed="0.00" departDelay="0.00" arrival="101.00" arrivalLane="22_0" arrivalPos="94.13" arrivalSpeed="13.39" duration="72.00" routeLength="221.30" waitingTime="46.00" waitingCount="1" stopTime="0.00" timeLoss="54.75" rerouteNo="0" devices="tripinfo_flow_53.0" vType="DEFAULT_VEHTYPE" speedFactor="0.98" vaporized=""/>
    <tripinfo id="flow_11.0" depart="50.00" departLane="31_0" departPos="5.10" departSpeed="0.00" departDelay="0.00" arrival="102.00" arrivalLane="12_2" arrivalPos="93.96" arrivalSpeed="12.71" duration="52.00" routeLength="239.72" waitingTime="23.00" waitingCount="1" stopTime="0.00" timeLoss="33.88" rerouteNo="0" devices="tripinfo_flow_11.0" vType="DEFAULT_VEHTYPE" speedFactor="0.99" vaporized=""/>
    <tripinfo id="flow_35.1" depart="52.00" departLane="41_0" departPos="1.70" departSpeed="0.00" departDelay="0.00" arrival="102.00" arrivalLane="12_1" arrivalPos="93.96" arrivalSpeed="4.96" duration="50.00" routeLength="188.18" waitingTime="7.00" waitingCount="1" stopTime="0.00" timeLoss="15.49" rerouteNo="0" devices="tripinfo_flow_35.1" vType="DEFAULT_BIKETYPE" speedFactor="0.97" vaporized=""/>
    <tripinfo id="flow_56.0" depart="34.00" departLane="31_0" departPos="5.10" departSpeed="0.00" departDelay="0.00" arrival="103.00" arrivalLane="12_0" arrivalPos="93.96" arrivalSpeed="11.09" duration="69.00" routeLength="239.72" waitingTime="40.00" waitingCount="1" stopTime="0.00" timeLoss="48.69" rerouteNo="0" devices="tripinfo_flow_56.0" vType="DEFAULT_VEHTYPE" speedFactor="0.87" vaporized=""/>
    <tripinfo id="flow_56.1" depart="75.00" departLane="31_0" departPos="5.10" departSpeed="0.00" departDelay="0.00" arrival="103.00" arrivalLane="12_2" arrivalPos="93.96" arrivalSpeed="14.98" duration="28.00" routeLength="239.72" waitingTime="1.00" waitingCount="1" stopTime="0.00" timeLoss="13.24" rerouteNo="0" devices="tripinfo_flow_56.1" vType="DEFAULT_VEHTYPE" speedFactor="1.17" vaporized=""/>
    <tripinfo id="flow_55.1" depart="42.00" departLane="31_0" departPos="5.10" departSpeed="0.00" departDelay="0.00" arrival="104.00" arrivalLane="42_3" arrivalPos="66.36" arrivalSpeed="12.82" duration="62.00" routeLength="208.66" waitingTime="35.00" waitingCount="2" stopTime="0.00" timeLoss="45.29" rerouteNo="0" devices="tripinfo_flow_55.1" vType="DEFAULT_VEHTYPE" speedFactor="0.95" vaporized=""/>
    <tripinfo id="flow_21.1" depart="43.00" departLane="31_0" departPos="5.10" departSpeed="0.00" departDelay="0.00" arrival="104.00" arrivalLane="12_0" arrivalPos="93.96" arrivalSpeed="14.39" duration="61.00" routeLength="239.72" waitingTime="35.00" waitingCount="1" stopTime="0.00" timeLoss="45.70" rerouteNo="0" devices="tripinfo_flow_21.1" vType="DEFAULT_VEHTYPE" speedFactor="1.13" vaporized=""/>
    <tripinfo id="flow_3.2" depart="47.00" departLane="11_0" departPos="5.10" departSpeed="0.00" departDelay="0.00" arrival="104.00" arrivalLane="32_1" arrivalPos="117.73" arrivalSpeed="13.72" duration="57.00" routeLength="240.03" waitingTime="30.00" waitingCount="1" stopTime="0.00" timeLoss="39.67" rerouteNo="0" devices="tripinfo_flow_3.2" vType="DEFAULT_VEHTYPE" speedFactor="1.01" vaporized=""/>
    <tripinfo id="flow_11.1" depart="54.00" departLane="31_0" departPos="5.10" departSpeed="0.00" departDelay="0.00" arrival="104.00" arrivalLane="12_1" arrivalPos="93.96" arrivalSpeed="14.79" duration="50.00" routeLength="239.72" waitingTime="22.00" waitingCount="1" stopTime="0.00" timeLoss="33.53" rerouteNo="0" devices="tripinfo_flow_11.1" vType="DEFAULT_VEHTYPE" speedFactor="1.10" vaporized=""/>
    <tripinfo id="flow_45.0" depart="46.00" departLane="31_0" departPos="5.10" departSpeed="0.00" departDelay="0.00" arrival="106.00" arrivalLane="42_3" arrivalPos="66.36" arrivalSpeed="15.89" duration="60.00" routeLength="208.66" waitingTime="31.00" waitingCount="1" stopTime="0.00" timeLoss="45.96" rerouteNo="0" devices="tripinfo_flow_45.0" vType="DEFAULT_VEHTYPE" speedFactor="1.15" vaporized=""/>
    <tripinfo id="flow_7.0" depart="57.00" departLane="31_0" departPos="5.10" departSpeed="0.00" departDelay="0.00" arrival="106.00" arrivalLane="12_0" arrivalPos="93.96" arrivalSpeed="13.99" duration="49.00" routeLength="239.72" waitingTime="20.00" waitingCount="1" stopTime="0.00" timeLoss="32.00" rerouteNo="0" devices="tripinfo_flow_7.0" vType="DEFAULT_VEHTYPE" speedFactor="1.03" vaporized=""/>
    <tripinfo id="flow_19.0" depart="78.00" departLane="31_0" departPos="5.10" departSpeed="0.00" departDelay="1.00" arrival="106.00" arrivalLane="12_1" arrivalPos="93.96" arrivalSpeed="13.14" duration="28.00" routeLength="239.72" waitingTime="0.00" waitingCount="0" stopTime="0.00" timeLoss="10.06" rerouteNo="0" devices="tripinfo_flow_19.0" vType="DEFAULT_VEHTYPE" speedFactor="1.00" vaporized=""/>
    <tripinfo id="flow_29.0" depart="21.00" departLane="11_0" departPos="1.70" departSpeed="0.00" departDelay="0.00" arrival="107.00" arrivalLane="42_0" arrivalPos="66.36" arrivalSpeed="5.25" duration="86.00" routeLength="167.89" waitingTime="46.00" waitingCount="1" stopTime="0.00" timeLoss="55.12" rerouteNo="0" devices="tripinfo_flow_29.0" vType="DEFAULT_BIKETYPE" speedFactor="0.94" vaporized=""/>
    <tripinfo id="flow_25.0" depart="61.00" departLane="31_0" departPos="5.10" departSpeed="0.00" departDelay="0.00" arrival="108.00" arrivalLane="22_0" arrivalPos="94.13" arrivalSpeed="14.10" duration="47.00" routeLength="221.30" waitingTime="18.00" waitingCount="1" stopTime="0.00" timeLoss="29.99" rerouteNo="0" devices="tripinfo_flow_25.0" vType="DEFAULT_VEHTYPE" speedFactor="1.04" vaporized=""/>
    <tripinfo id="flow_29.1" depart="39.00" departLane="11_0" departPos="1.70" departSpeed="0.00" departDelay="0.00" arrival="109.00" arrivalLane="42_0" arrivalPos="66.36" arrivalSpeed="4.97" duration="70.00" routeLength="167.89" waitingTime="30.00" waitingCount="1" stopTime="0.00" timeLoss="39.03" rerouteNo="0" devices="tripinfo_flow_29.1" vType="DEFAULT_BIKETYPE" speedFactor="0.92" vaporized=""/>
    <tripinfo id="flow_47.0" depart="66.00" departLane="11_0" departPos="5.10" departSpeed="0.00" departDelay="0.00" arrival="111.00" arrivalLane="22_1" arrivalPos="94.13" arrivalSpeed="11.41" duration="45.00" routeLength="212.42" waitingTime="16.00" waitingCount="2" stopTime="0.00" timeLoss="26.70" rerouteNo="0" devices="tripinfo_flow_47.0" vType="DEFAULT_VEHTYPE" speedFactor="0.90" vaporized=""/>
    <tripinfo id="flow_55.2" depart="53.00" departLane="31_0" departPos="5.10" departSpeed="0.00" departDelay="1.00" arrival="114.00" arrivalLane="42_3" arrivalPos="66.36" arrivalSpeed="16.16" duration="61.00" routeLength="208.66" waitingTime="29.00" waitingCount="2" stopTime="0.00" timeLoss="47.61" rerouteNo="0" devices="tripinfo_flow_55.2" vType="DEFAULT_VEHTYPE" speedFactor="1.18" vaporized=""/>
    <tripinfo id="flow_48.0" depart="94.00" departLane="11_0" departPos="5.10" departSpeed="0.00" departDelay="1.00" arrival="116.00" arrivalLane="32_0" arrivalPos="117.73" arrivalSpeed="12.42" duration="22.00" routeLength="240.03" waitingTime="0.00" waitingCount="0" stopTime="0.00" timeLoss="3.35" rerouteNo="0" devices="tripinfo_flow_48.0" vType="DEFAULT_VEHTYPE" speedFactor="0.94" vaporized=""/>
    <tripinfo id="flow_17.1" depart="81.00" departLane="31_0" departPos="5.10" departSpeed="0.00" departDelay="1.00" arrival="118.00" arrivalLane="42_3" arrivalPos="66.36" arrivalSpeed="11.37" duration="37.00" routeLength="208.66" waitingTime="4.00" waitingCount="1" stopTime="0.00" timeLoss="19.01" rerouteNo="0" devices="tripinfo_flow_17.1" vType="DEFAULT_VEHTYPE" speedFactor="0.90" vaporized=""/>
    <tripinfo id="flow_47.1" depart="73.00" departLane="11_0" departPos="5.10" departSpeed="0.00" departDelay="0.00" arrival="120.00" arrivalLane="22_1" arrivalPos="94.13" arrivalSpeed="11.12" duration="47.00" routeLength="212.42" waitingTime="3.00" waitingCount="2" stopTime="0.00" timeLoss="28.15" rerouteNo="0" devices="tripinfo_flow_47.1" vType="DEFAULT_VEHTYPE" speedFactor="0.85" vaporized=""/>
    <tripinfo id="flow_45.1" depart="82.00" departLane="31_0" departPos="5.10" departSpeed="0.00" departDelay="0.00" arrival="120.00" arrivalLane="42_3" arrivalPos="66.36" arrivalSpeed="14.03" duration="38.00" routeLength="208.66" waitingTime="2.00" waitingCount="1" stopTime="0.00" timeLoss="21.98" rerouteNo="0" devices="tripinfo_flow_45.1" vType="DEFAULT_VEHTYPE" speedFactor="1.02" vaporized=""/>
    <tripinfo id="flow_15.0" depart="78.00" departLane="11_0" departPos="5.10" departSpeed="0.00" departDelay="0.00" arrival="122.00" arrivalLane="22_1" arrivalPos="94.13" arrivalSpeed="12.70" duration="44.00" routeLength="212.42" waitingTime="3.00" waitingCount="2" stopTime="0.00" timeLoss="27.50" rerouteNo="0" devices="tripinfo_flow_15.0" vType="DEFAULT_VEHTYPE" speedFactor="1.00" vaporized=""/>
    <tripinfo id="flow_15.1" depart="93.00" departLane="11_0" departPos="5.10" departSpeed="0.00" departDelay="0.00" arrival="124.00" arrivalLane="22_1" arrivalPos="94.13" arrivalSpeed="13.03" duration="31.00" routeLength="212.42" waitingTime="0.00" waitingCount="0" stopTime="0.00" timeLoss="14.12" rerouteNo="0" devices="tripinfo_flow_15.1" vType="DEFAULT_VEHTYPE" speedFactor="0.99" vaporized=""/>
    <tripinfo id="flow_32.0" depart="68.00" departLane="11_0" departPos="1.70" departSpeed="0.00" departDelay="0.00" arrival="125.00" arrivalLane="22_0" arrivalPos="94.13" arrivalSpeed="5.47" duration="57.00" routeLength="215.82" waitingTime="4.00" waitingCount="2" stopTime="0.00" timeLoss="17.45" rerouteNo="0" devices="tripinfo_flow_32.0" vType="DEFAULT_BIKETYPE" speedFactor="0.88" vaporized=""/>
    <tripinfo id="flow_53.1" depart="105.00" departLane="31_0" departPos="5.10" departSpeed="0.00" departDelay="0.00" arrival="127.00" arrivalLane="22_0" arrivalPos="94.13" arrivalSpeed="12.25" duration="22.00" routeLength="221.30" waitingTime="0.00" waitingCount="0" stopTime="0.00" timeLoss="4.91" rerouteNo="0" devices="tripinfo_flow_53.1" vType="DEFAULT_VEHTYPE" speedFactor="0.97" vaporized=""/>
    <tripinfo id="flow_54.0" depart="105.00" departLane="11_0" departPos="5.10" departSpeed="0.00" departDelay="0.00" arrival="130.00" arrivalLane="22_1" arrivalPos="94.13" arrivalSpeed="12.80" duration="25.00" routeLength="212.42" waitingTime="0.00" waitingCount="0" stopTime="0.00" timeLoss="8.03" rerouteNo="0" devices="tripinfo_flow_54.0" vType="DEFAULT_VEHTYPE" speedFactor="0.94" vaporized=""/>
    <tripinfo id="flow_16.0" depart="109.00" departLane="11_0" departPos="5.10" departSpeed="0.00" departDelay="0.00" arrival="130.00" arrivalLane="32_0" arrivalPos="117.73" arrivalSpeed="12.89" duration="21.00" routeLength="240.03" waitingTime="0.00" waitingCount="0" stopTime="0.00" timeLoss="3.44" rerouteNo="0" devices="tripinfo_flow_16.0" vType="DEFAULT_VEHTYPE" speedFactor="0.98" vaporized=""/>
    <tripinfo id="flow_17.2" depart="104.00" departLane="31_0" departPos="5.10" departSpeed="0.00" departDelay="0.00" arrival="131.00" arrivalLane="42_3" arrivalPos="66.36" arrivalSpeed="13.84" duration="27.00" routeLength="208.66" waitingTime="3.00" waitingCount="1" stopTime="0.00" timeLoss="11.69" rerouteNo="0" devices="tripinfo_flow_17.2" vType="DEFAULT_VEHTYPE" speedFactor="1.04" vaporized=""/>
    <tripinfo id="flow_50.2" depart="76.00" departLane="41_0" departPos="5.10" departSpeed="0.00" departDelay="0.00" arrival="143.00" arrivalLane="22_0" arrivalPos="94.13" arrivalSpeed="14.77" duration="67.00" routeLength="189.26" waitingTime="44.00" waitingCount="1" stopTime="0.00" timeLoss="53.89" rerouteNo="0" devices="tripinfo_flow_50.2" vType="DEFAULT_VEHTYPE" speedFactor="1.10" vaporized=""/>
    <tripinfo id="flow_8.1" depart="125.00" departLane="41_0" departPos="5.10" departSpeed="0.00" departDelay="0.00" arrival="145.00" arrivalLane="22_0" arrivalPos="94.13" arrivalSpeed="12.24" duration="20.00" routeLength="189.26" waitingTime="0.00" waitingCount="0" stopTime="0.00" timeLoss="5.74" rerouteNo="0" devices="tripinfo_flow_8.1" vType="DEFAULT_VEHTYPE" speedFactor="0.97" vaporized=""/>
    <tripinfo id="flow_46.0" depart="123.00" departLane="21_0" departPos="5.10" departSpeed="0.00" departDelay="2.00" arrival="146.00" arrivalLane="42_1" arrivalPos="66.36" arrivalSpeed="14.06" duration="23.00" routeLength="189.25" waitingTime="0.00" waitingCount="0" stopTime="0.00" timeLoss="9.75" rerouteNo="0" devices="tripinfo_flow_46.0" vType="DEFAULT_VEHTYPE" speedFactor="1.03" vaporized=""/>
    <tripinfo id="flow_12.1" depart="120.00" departLane="21_0" departPos="5.10" departSpeed="0.00" departDelay="0.00" arrival="147.00" arrivalLane="12_1" arrivalPos="93.96" arrivalSpeed="13.82" duration="27.00" routeLength="197.05" waitingTime="0.00" waitingCount="0" stopTime="0.00" timeLoss="11.60" rerouteNo="0" devices="tripinfo_flow_12.1" vType="DEFAULT_VEHTYPE" speedFactor="1.01" vaporized=""/>
    <tripinfo id="flow_50.3" depart="107.00" departLane="41_0" departPos="5.10" departSpeed="0.00" departDelay="0.00" arrival="151.00" arrivalLane="22_1" arrivalPos="94.13" arrivalSpeed="14.41" duration="44.00" routeLength="189.26" waitingTime="15.00" waitingCount="1" stopTime="0.00" timeLoss="30.38" rerouteNo="0" devices="tripinfo_flow_50.3" vType="DEFAULT_VEHTYPE" speedFactor="1.06" vaporized=""/>
    <tripinfo id="flow_41.2" depart="100.00" departLane="21_0" departPos="1.70" departSpeed="0.00" departDelay="0.00" arrival="153.00" arrivalLane="12_0" arrivalPos="93.96" arrivalSpeed="5.14" duration="53.00" routeLength="200.45" waitingTime="8.00" waitingCount="1" stopTime="0.00" timeLoss="16.78" rerouteNo="0" devices="tripinfo_flow_41.2" vType="DEFAULT_BIKETYPE" speedFactor="0.91" vaporized=""/>
    <tripinfo id="flow_5.1" depart="86.00" departLane="21_0" departPos="5.10" departSpeed="0.00" departDelay="0.00" arrival="156.00" arrivalLane="32_3" arrivalPos="117.73" arrivalSpeed="12.48" duration="70.00" routeLength="236.49" waitingTime="40.00" waitingCount="2" stopTime="0.00" timeLoss="51.65" rerouteNo="0" devices="tripinfo_flow_5.1" vType="DEFAULT_VEHTYPE" speedFactor="0.97" vaporized=""/>
    <tripinfo id="flow_36.1" depart="82.00" departLane="41_0" departPos="1.70" departSpeed="0.00" departDelay="0.00" arrival="158.00" arrivalLane="22_0" arrivalPos="94.13" arrivalSpeed="5.12" duration="76.00" routeLength="192.66" waitingTime="32.00" waitingCount="1" stopTime="0.00" timeLoss="40.62" rerouteNo="0" devices="tripinfo_flow_36.1" vType="DEFAULT_BIKETYPE" speedFactor="1.14" vaporized=""/>
    <tripinfo id="flow_5.2" depart="104.00" departLane="21_0" departPos="5.10" departSpeed="0.00" departDelay="1.00" arrival="159.00" arrivalLane="32_3" arrivalPos="117.73" arrivalSpeed="12.50" duration="55.00" routeLength="236.49" waitingTime="20.00" waitingCount="2" stopTime="0.00" timeLoss="35.00" rerouteNo="0" devices="tripinfo_flow_5.2" vType="DEFAULT_VEHTYPE" speedFactor="0.91" vaporized=""/>
    <tripinfo id="flow_36.2" depart="91.00" departLane="41_0" departPos="1.70" departSpeed="0.00" departDelay="0.00" arrival="160.00" arrivalLane="22_0" arrivalPos="94.13" arrivalSpeed="5.06" duration="69.00" routeLength="192.66" waitingTime="23.00" waitingCount="1" stopTime="0.00" timeLoss="33.47" rerouteNo="0" devices="tripinfo_flow_36.2" vType="DEFAULT_BIKETYPE" speedFactor="1.12" vaporized=""/>